date Tue 10 Aug 2021 10:14:09 BST
hostname MacBook-Pro.local
system Darwin MacBook-Pro.local 20.6.0 Darwin Kernel Version 20.6.0: Wed Jun 23 00:26:27 PDT 2021; root:xnu-7195.141.2~5/RELEASE_ARM64_T8101 x86_64
user brunocamino
output data in /Users/brunocamino/Desktop/Imperial/crystal_python_tools/final/examples/workflows/../data/spbs/mgo.out
crystal executable in /Users/brunocamino/crystal
input data in /Users/brunocamino/Desktop/Imperial/crystal_python_tools/final/examples/workflows/../data/spbs/mgo.d12
temporary directory /Users/brunocamino/crystal/tmp
external geometry input from /Users/brunocamino/Desktop/Imperial/crystal_python_tools/final/examples/workflows/../data/spbs/mgo.gui
external geometry input saved in /Users/brunocamino/Desktop/Imperial/crystal_python_tools/final/examples/workflows/../data/spbs/mgo_inp.gui
MGO BULK - GEOMETRY TEST
CRYSTAL
0 0 0
225
4.217
2
12 0.    0.    0.
8 0.5   0.5   0.5
ROTATE
1 0 0
END
12 4
0 0 8 2.0 1.0
 68370.0 0.0002226
 9661.0 0.001901
 2041.0 0.011042
 529.6 0.05005
 159.17 0.1690
 54.71 0.36695
 21.236 0.4008
 8.791 0.1487
0 1 5 8.0 1.0
 143.7 -0.00671 0.00807
 31.27 -0.07927 0.06401
 9.661 -0.08088 0.2092
 3.726 0.2947 0.3460
 1.598 0.5714 0.3731
0 1 1 2.0 1.0
 0.688 1.0 1.0
0 1 1 0.0 1.0
 0.28 1.0 1.0
8 4
0 0 8 2.0 1.0
 8020.0 0.00108
 1338.0 0.00804
 255.4 0.05324
 69.22 0.1681
 23.90 0.3581
 9.264 0.3855
 3.851 0.1468
 1.212 0.0728
0 1 4 6.0 1.0
 49.43 -0.00883 0.00958
 10.47 -0.0915 0.0696
 3.235 -0.0402 0.2065
 1.217 0.379 0.347
0 1 1 0.0 1.0
 0.4764 1.0 1.0
0 1 1 0.0 1.0
 0.1802 1.0 1.0
99 0
ENDBS
DFT
B3LYP
XXLGRID
ENDDFT
TOLINTEG
7 7 7 7 14
SHRINK
6 12
MAXCYCLE
200
FMIXING
70
DIIS
ENDSCF

         
 *******************************************************************************
 *                                                                             *
 *                               CRYSTAL17                                     *
 *                      public : 1.0.2 - March 1st, 2018                       *
 *                       HTTP://WWW.CRYSTAL.UNITO.IT                           *
 *                                                                             *
 *                              MAIN AUTHORS                                   *
 *                                                                             *
 *  R. DOVESI(1,11), V.R. SAUNDERS(2), C. ROETTI(1,11), R. ORLANDO(1,11),      *
 *  C.M. ZICOVICH-WILSON(1,3), F. PASCALE(4), B. CIVALLERI(1,11),              *
 *  K. DOLL(5), N.M. HARRISON(2,6), I.J. BUSH(7), Ph. D'ARCO(8),               *
 *  M. LLUNELL(9), M. CAUSA'(10), Y. NOEL(8), L. MASCHIO(1,11), A. ERBA(1,11)  *
 *  M. RE'RAT(14), S. CASASSA(1,11)                                            *
 *                                                                             *
 *        CONTRIBUTIONS TO THE CODE HAVE ALSO BEEN GIVEN BY                    *
 *                                                                             *
 *  M. FERRABONE(1,11), M. DE LA PIERRE(1,11), M. FERRERO(1,11),               *
 *  J. BAIMA(1,11), E. ALBANESE(1,11), M.F. PEINTINGER(12), R. BAST(13),       *
 *  B. KIRTMAN(15), V. LACIVITA(1,11), R. DEMICHELIS(1,16)                     *
 *  G. BRANDEBURG(17), S. SALUSTRO(1,11), G. SANSONE(1,11)                     *
 *  M.T. RUGGIERO(18)                                                          *
 *                                                                             *
 * (1) THEORETICAL CHEMISTRY GROUP - UNIVERSITA' DI TORINO - TORINO (ITALY)    *
 * (2) COMPUTATIONAL SCIENCE & ENGINEERING DEPARTMENT - STFC DARESBURY (UK)    *
 * (3) UNIVERSIDAD AUTONOMA DEL ESTADO DE MORELOS - CUERNAVACA (MEXICO)        *
 * (4) UNIVERSITE' DE LORRAINE - NANCY (FRANCE)                                *
 * (5) UNIVERSITAET STUTTGART- STUTTGART (GERMANY)                             *
 * (6) IMPERIAL COLLEGE - LONDON (UK)                                          *
 * (7) OXFORD E-RESEARCH CENTRE - OXFORD (UK)                                  *
 * (8) UPMC - SORBONNE UNIVERSITES - PARIS (FRANCE)                            *
 * (9) UNIVERSIDAD DE BARCELONA - BARCELONA (SPAIN)                            *
 *(10) UNIVERSITA' DI NAPOLI "FEDERICO II" - NAPOLI (ITALY)                    *
 *(11) NIS - NANOSTRUCTURED INTERFACES AND SURFACES - TORINO (ITALY)           *
 *(12) MPI FUER CHEMISCHE ENERGIEKONVERSION - MUELHEIM AN DER RUHR (GERMANY)   *
 *(13) UNIVERSITY OF TROMSO - TROMSO (NORWAY)                                  *
 *(14) UNIVERSITE' DE PAU ET DES PAYS DE L'ADOUR - PAU (FRANCE)                *
 *(15) UNIVERSITY OF CALIFORNIA SANTA BARBARA - SANTA BARBARA (USA)            *
 *(16) CURTIN UNIVERSITY - PERTH (AUSTRALIA)                                   *
 *(17) UNIVERSITY COLLEGE LONDON - LONDON (UK)                                 *
 *(18) CAMBRIDGE UNIVERSITY - CAMBRIDGE (UK)                                   *
 *                                                                             *
 *******************************************************************************
 EEEEEEEEEE STARTING  DATE 10 08 2021 TIME 10:14:09.9
 MGO BULK - GEOMETRY TEST                                                        

 CRYSTAL CALCULATION
 (INPUT ACCORDING TO THE INTERNATIONAL TABLES FOR X-RAY CRYSTALLOGRAPHY)
 CRYSTAL FAMILY                       :  CUBIC       
 CRYSTAL CLASS  (GROTH - 1921)        :  CUBIC HEXAKISOCTAHEDRAL              

 SPACE GROUP (CENTROSYMMETRIC)        :  F M 3 M         

 LATTICE PARAMETERS  (ANGSTROMS AND DEGREES) - CONVENTIONAL CELL
        A           B           C        ALPHA        BETA       GAMMA
     4.21700     4.21700     4.21700    90.00000    90.00000    90.00000


 NUMBER OF IRREDUCIBLE ATOMS IN THE CONVENTIONAL CELL:    2

 INPUT COORDINATES

 ATOM AT. N.              COORDINATES
   1  12     0.000000000000E+00  0.000000000000E+00  0.000000000000E+00
   2   8     5.000000000000E-01  5.000000000000E-01  5.000000000000E-01

 *******************************************************************************

 << INFORMATION >>: FROM NOW ON, ALL COORDINATES REFER TO THE PRIMITIVE CELL

 *******************************************************************************

 LATTICE PARAMETERS  (ANGSTROMS AND DEGREES) - PRIMITIVE CELL
       A          B          C        ALPHA      BETA     GAMMA        VOLUME
    2.98187    2.98187    2.98187    60.00000  60.00000  60.00000     18.747822

 COORDINATES OF THE EQUIVALENT ATOMS (FRACTIONAL UNITS)

 N. ATOM EQUIV AT. N.          X                  Y                  Z

   1   1   1   12 MG    0.00000000000E+00  0.00000000000E+00  0.00000000000E+00

   2   2   1    8 O    -5.00000000000E-01 -5.00000000000E-01 -5.00000000000E-01

 NUMBER OF SYMMETRY OPERATORS         :   48
 *******************************************************************************
 * GEOMETRY EDITING - INPUT COORDINATES ARE GIVEN IN ANGSTROM         
 *******************************************************************************

 GEOMETRY NOW FULLY CONSISTENT WITH THE GROUP


 *******************************************************************************
  * CELL ROTATION 
 *******************************************************************************

 DIRECT-LATTICE FUNDAMENTAL VECTORS 
             X         Y         Z
 A1       0.0000    2.1085    2.1085
 A2       2.1085    0.0000    2.1085
 A3       2.1085    2.1085    0.0000
 **********************************************************************
 *            DEFINITION OF THE NEW LATTICE VECTORS                   *
 *            TWO OF WHICH BELONG TO THE SELECTED PLANE               *
 **********************************************************************

                       PLANE INDICES =   1   0   0
                   PRIMITIVE INDICES =   0   1   1

 NEW FUNDAMENTAL DIRECT-LATTICE VECTORS B1,B2,B3
 B1=      1 A1    0 A2    0 A3 
 B2=      0 A1   -1 A2    1 A3 
 B3=      1 A1    0 A2   -1 A3 

 LATTICE PARAMETERS  (ANGSTROM  AND DEGREES)
        A           B           C        ALPHA        BETA       GAMMA
     2.98187     2.98187     2.98187   120.00000    60.00000    90.00000

 NUMBER OF PRIMITIVE CELLS CONTAINED IN THE NEW FUNDAMENTAL CELL :  1

 *** THE CARTESIAN FRAME IS ROTATED SO THAT
     THE SELECTED PLANE IS IN THE X-Y PLANE

 NEW FUNDAMENTAL DIRECT-LATTICE VECTORS B1,B2,B3
             X         Y         Z
 B1       2.9819    0.0000    0.0000
 B2       0.0000    2.9819    0.0000
 B3       1.4909   -1.4909    2.1085

 VOLUME OF THE 3D CELL      18.748
 AREA OF THE 2D CELL         8.892
 B3 MODULUS                  2.982
 B3 Z PROJECTION             2.108
 B3 X-Y PROJECTION           2.108

 UNIT CELL ATOM COORDINATES :
 LAB AT.NO.       CARTESIAN (ANG)               CRYSTALLOGRAPHIC
   1  12       0.000     0.000     0.000     0.000000   0.000000   0.000000
   2   8       1.491    -1.491     0.000     0.500000  -0.500000   0.000000
   1  12       0.000     0.000     0.000     0.000000   0.000000   0.000000
   2   8       1.491     1.491     0.000     0.500000   0.500000   0.000000

 ATOMS CLASSIFIED ACCORDING TO THE Z COORDINATE :
  LAYER   1 Z=   0.0000; LABEL AT.NO.              X,Y,Z (ANG.)
                           1    12        0.00000     0.00000     0.00000
                           2     8        1.49093     1.49093     0.00000

 *************************** CELL ROTATION COMPLETE ***************************

 GCALCO - MAX INDICES DIRECT LATTICE VECTOR    14    14    16
 NO.OF VECTORS CREATED 6999 STARS  105 RMAX    59.63435 BOHR

 GEOMETRY FOR WAVE FUNCTION - DIMENSIONALITY OF THE SYSTEM    3
 (NON PERIODIC DIRECTION: LATTICE PARAMETER FORMALLY SET TO 500)
 *******************************************************************************
 LATTICE PARAMETERS (ANGSTROMS AND DEGREES) - BOHR = 0.5291772083 ANGSTROM
 PRIMITIVE CELL - CENTRING CODE 5/0 VOLUME=    18.747822 - DENSITY  3.541 g/cm^3
         A              B              C           ALPHA      BETA       GAMMA 
     2.98186930     2.98186930     2.98186930   120.000000  60.000000  90.000000
 *******************************************************************************
 ATOMS IN THE ASYMMETRIC UNIT    2 - ATOMS IN THE UNIT CELL:    2
     ATOM                 X/A                 Y/B                 Z/C    
 *******************************************************************************
      1 T  12 MG    0.000000000000E+00  0.000000000000E+00  0.000000000000E+00
      2 T   8 O    -5.000000000000E-01 -5.000000000000E-01  0.000000000000E+00

 TRANSFORMATION MATRIX PRIMITIVE-CRYSTALLOGRAPHIC CELL
 -1.0000  1.0000  1.0000  1.0000 -1.0000  1.0000  1.0000  1.0000 -1.0000

 *******************************************************************************
 CRYSTALLOGRAPHIC CELL (VOLUME=         74.99128631)
         A              B              C           ALPHA      BETA       GAMMA 
     2.98186930     6.66766245     5.16474912   121.090930  90.000000 116.565051

 COORDINATES IN THE CRYSTALLOGRAPHIC CELL
     ATOM                 X/A                 Y/B                 Z/C    
 *******************************************************************************
      1 T  12 MG    0.000000000000E+00  0.000000000000E+00  0.000000000000E+00
      2 T   8 O     2.500000000000E-01  2.500000000000E-01 -5.000000000000E-01

 T = ATOM BELONGING TO THE ASYMMETRIC UNIT

 ****   48 SYMMOPS - TRANSLATORS IN FRACTIONAL UNITS
 **** MATRICES AND TRANSLATORS IN THE CRYSTALLOGRAPHIC REFERENCE FRAME
   V INV                    ROTATION MATRICES                   TRANSLATORS
   1   1  1.00  0.00  0.00  0.00  1.00  0.00  0.00  0.00  1.00  0.00  0.00  0.00
   2   2  0.00 -1.00  1.00 -1.00  0.00 -1.00  0.00  0.00 -1.00  0.00  0.00  0.00
   3   3 -1.00  0.00 -1.00  0.00 -1.00  1.00  0.00  0.00  1.00  0.00  0.00  0.00
   4   4  0.00  1.00 -0.00  1.00  0.00 -0.00  0.00  0.00 -1.00  0.00  0.00  0.00
   5   6  1.00  0.00 -0.00 -1.00  0.00 -1.00 -1.00  1.00 -1.00  0.00  0.00  0.00
   6   5  1.00  0.00 -0.00  0.00 -1.00  1.00 -1.00 -1.00  0.00  0.00  0.00  0.00
   7   8  0.00  1.00 -0.00  0.00 -1.00  1.00  1.00 -1.00  1.00  0.00  0.00  0.00
   8   7  0.00 -1.00  1.00  1.00  0.00 -0.00  1.00  1.00 -0.00  0.00  0.00  0.00
   9  10  0.00 -1.00  1.00  0.00  1.00 -0.00 -1.00  1.00 -1.00  0.00  0.00  0.00
  10   9 -1.00  0.00 -1.00  0.00  1.00 -0.00  1.00  1.00 -0.00  0.00  0.00  0.00
  11  12 -1.00  0.00 -1.00  1.00  0.00 -0.00  1.00 -1.00  1.00  0.00  0.00  0.00
  12  11  0.00  1.00 -0.00 -1.00  0.00 -1.00 -1.00 -1.00  0.00  0.00  0.00  0.00
  13  13 -1.00  0.00  0.00  1.00  0.00  1.00  1.00  1.00 -0.00  0.00  0.00  0.00
  14  14  0.00  1.00 -1.00  0.00 -1.00  0.00 -1.00 -1.00  0.00  0.00  0.00  0.00
  15  16  1.00  0.00  1.00 -1.00  0.00  0.00 -1.00 -1.00  0.00  0.00  0.00  0.00
  16  15  0.00 -1.00  0.00  0.00  1.00 -1.00  1.00  1.00 -0.00  0.00  0.00  0.00
  17  17 -1.00  0.00  0.00  0.00  1.00 -1.00  0.00  0.00 -1.00  0.00  0.00  0.00
  18  18 -1.00  0.00  0.00  0.00 -1.00  0.00  1.00 -1.00  1.00  0.00  0.00  0.00
  19  21  0.00 -1.00  0.00  1.00  0.00  1.00  0.00  0.00  1.00  0.00  0.00  0.00
  20  22  0.00  1.00 -1.00  1.00  0.00  1.00  1.00 -1.00  1.00  0.00  0.00  0.00
  21  19  0.00  1.00 -1.00 -1.00  0.00  0.00  0.00  0.00  1.00  0.00  0.00  0.00
  22  20  1.00  0.00  1.00  0.00  1.00 -1.00 -1.00  1.00 -1.00  0.00  0.00  0.00
  23  23  1.00  0.00  1.00  0.00 -1.00  0.00  0.00  0.00 -1.00  0.00  0.00  0.00
  24  24  0.00 -1.00  0.00 -1.00  0.00  0.00 -1.00  1.00 -1.00  0.00  0.00  0.00
  25  25 -1.00  0.00  0.00  0.00 -1.00  0.00  0.00  0.00 -1.00  0.00  0.00  0.00
  26  26  0.00  1.00 -1.00  1.00  0.00  1.00  0.00  0.00  1.00  0.00  0.00  0.00
  27  27  1.00  0.00  1.00  0.00  1.00 -1.00  0.00  0.00 -1.00  0.00  0.00  0.00
  28  28  0.00 -1.00  0.00 -1.00  0.00  0.00  0.00  0.00  1.00  0.00  0.00  0.00
  29  30 -1.00  0.00  0.00  1.00  0.00  1.00  1.00 -1.00  1.00  0.00  0.00  0.00
  30  29 -1.00  0.00  0.00  0.00  1.00 -1.00  1.00  1.00 -0.00  0.00  0.00  0.00
  31  32  0.00 -1.00  0.00  0.00  1.00 -1.00 -1.00  1.00 -1.00  0.00  0.00  0.00
  32  31  0.00  1.00 -1.00 -1.00  0.00  0.00 -1.00 -1.00  0.00  0.00  0.00  0.00
  33  34  0.00  1.00 -1.00  0.00 -1.00  0.00  1.00 -1.00  1.00  0.00  0.00  0.00
  34  33  1.00  0.00  1.00  0.00 -1.00  0.00 -1.00 -1.00  0.00  0.00  0.00  0.00
  35  36  1.00  0.00  1.00 -1.00  0.00  0.00 -1.00  1.00 -1.00  0.00  0.00  0.00
  36  35  0.00 -1.00  0.00  1.00  0.00  1.00  1.00  1.00 -0.00  0.00  0.00  0.00
  37  37  1.00  0.00 -0.00 -1.00  0.00 -1.00 -1.00 -1.00  0.00  0.00  0.00  0.00
  38  38  0.00 -1.00  1.00  0.00  1.00 -0.00  1.00  1.00 -0.00  0.00  0.00  0.00
  39  40 -1.00  0.00 -1.00  1.00  0.00 -0.00  1.00  1.00 -0.00  0.00  0.00  0.00
  40  39  0.00  1.00 -0.00  0.00 -1.00  1.00 -1.00 -1.00  0.00  0.00  0.00  0.00
  41  41  1.00  0.00 -0.00  0.00 -1.00  1.00  0.00  0.00  1.00  0.00  0.00  0.00
  42  42  1.00  0.00 -0.00  0.00  1.00 -0.00 -1.00  1.00 -1.00  0.00  0.00  0.00
  43  45  0.00  1.00 -0.00 -1.00  0.00 -1.00  0.00  0.00 -1.00  0.00  0.00  0.00
  44  46  0.00 -1.00  1.00 -1.00  0.00 -1.00 -1.00  1.00 -1.00  0.00  0.00  0.00
  45  43  0.00 -1.00  1.00  1.00  0.00 -0.00  0.00  0.00 -1.00  0.00  0.00  0.00
  46  44 -1.00  0.00 -1.00  0.00 -1.00  1.00  1.00 -1.00  1.00  0.00  0.00  0.00
  47  47 -1.00  0.00 -1.00  0.00  1.00 -0.00  0.00  0.00  1.00  0.00  0.00  0.00
  48  48  0.00  1.00 -0.00  1.00  0.00 -0.00  1.00 -1.00  1.00  0.00  0.00  0.00

 DIRECT LATTICE VECTORS CARTESIAN COMPONENTS (ANGSTROM)
          X                    Y                    Z
   0.298186929626E+01   0.000000000000E+00   0.000000000000E+00
   0.000000000000E+00   0.298186929626E+01   0.000000000000E+00
   0.149093464813E+01  -0.149093464813E+01   0.210850000000E+01


 CARTESIAN COORDINATES - PRIMITIVE CELL
 *******************************************************************************
 *      ATOM          X(ANGSTROM)         Y(ANGSTROM)         Z(ANGSTROM)
 *******************************************************************************
    1    12 MG    0.000000000000E+00  0.000000000000E+00  0.000000000000E+00
    2     8 O     1.490934648132E+00  1.490934648132E+00  0.000000000000E+00

 *******************************************************************************
 LOCAL ATOMIC FUNCTIONS BASIS SET
 *******************************************************************************
   ATOM   X(AU)   Y(AU)   Z(AU)  N. TYPE  EXPONENT  S COEF   P COEF   D/F/G COEF
 *******************************************************************************
   1 MG   0.000   0.000   0.000
                                  1 S  
                                         6.837E+04 2.226E-04 0.000E+00 0.000E+00
                                         9.661E+03 1.901E-03 0.000E+00 0.000E+00
                                         2.041E+03 1.104E-02 0.000E+00 0.000E+00
                                         5.296E+02 5.005E-02 0.000E+00 0.000E+00
                                         1.592E+02 1.690E-01 0.000E+00 0.000E+00
                                         5.471E+01 3.669E-01 0.000E+00 0.000E+00
                                         2.124E+01 4.008E-01 0.000E+00 0.000E+00
                                         8.791E+00 1.487E-01 0.000E+00 0.000E+00
                           2-     5 SP 
                                         1.437E+02-6.710E-03 8.070E-03 0.000E+00
                                         3.127E+01-7.927E-02 6.401E-02 0.000E+00
                                         9.661E+00-8.088E-02 2.092E-01 0.000E+00
                                         3.726E+00 2.947E-01 3.460E-01 0.000E+00
                                         1.598E+00 5.714E-01 3.731E-01 0.000E+00
                           6-     9 SP 
                                         6.880E-01 1.000E+00 1.000E+00 0.000E+00
                          10-    13 SP 
                                         2.800E-01 1.000E+00 1.000E+00 0.000E+00
   2 O    2.817   2.817   0.000
                                 14 S  
                                         8.020E+03 1.080E-03 0.000E+00 0.000E+00
                                         1.338E+03 8.040E-03 0.000E+00 0.000E+00
                                         2.554E+02 5.324E-02 0.000E+00 0.000E+00
                                         6.922E+01 1.681E-01 0.000E+00 0.000E+00
                                         2.390E+01 3.581E-01 0.000E+00 0.000E+00
                                         9.264E+00 3.855E-01 0.000E+00 0.000E+00
                                         3.851E+00 1.468E-01 0.000E+00 0.000E+00
                                         1.212E+00 7.280E-02 0.000E+00 0.000E+00
                          15-    18 SP 
                                         4.943E+01-8.830E-03 9.580E-03 0.000E+00
                                         1.047E+01-9.150E-02 6.960E-02 0.000E+00
                                         3.235E+00-4.020E-02 2.065E-01 0.000E+00
                                         1.217E+00 3.790E-01 3.470E-01 0.000E+00
                          19-    22 SP 
                                         4.764E-01 1.000E+00 1.000E+00 0.000E+00
                          23-    26 SP 
                                         1.802E-01 1.000E+00 1.000E+00 0.000E+00
 INFORMATION **** SET_MPP **** PCRYSTAL CALCULATION
 INFORMATION **** READM2 **** NEW DEFAULT: FOCK/KS MATRIX MIXING SET TO 30 %
 INFORMATION **** READM2 **** NEW DEFAULT: FULL DIRECT SCF MODE
 INFORMATION **** READM2 **** NEW DEFAULT: COULOMB BIPOLAR BUFFER SET TO 32 Mb
 INFORMATION **** READM2 **** NEW DEFAULT: EXCHANGE BIPOLAR BUFFER SET TO 32 Mb

 *******************************************************************************
 NEW DEFAULT: DFT INTEGRATION GRID INCREASED TO XLGRID
 NEW DEFAULT: DIIS ACCELERATOR ACTIVE
 USE KEYWORD NODIIS TO TURN IT OFF
 *******************************************************************************

 INFORMATION **** TOLINTEG **** COULOMB AND EXCHANGE SERIES TOLERANCES MODIFIED
 INFORMATION **** MAXCYCLE **** MAX NUMBER OF SCF CYCLES SET TO         200
 INFORMATION **** DIIS **** DIIS FOR SCF ACTIVE
 INFORMATION **** DIIS **** LEVEL SHIFTER DISABLED
 *******************************************************************************
 N. OF ATOMS PER CELL         2  COULOMB OVERLAP TOL         (T1) 10**   -7
 NUMBER OF SHELLS             8  COULOMB PENETRATION TOL     (T2) 10**   -7
 NUMBER OF AO                26  EXCHANGE OVERLAP TOL        (T3) 10**   -7
 N. OF ELECTRONS PER CELL    20  EXCHANGE PSEUDO OVP (F(G))  (T4) 10**   -7
 CORE ELECTRONS PER CELL     12  EXCHANGE PSEUDO OVP (P(G))  (T5) 10**  -14
 N. OF SYMMETRY OPERATORS    48  POLE ORDER IN MONO ZONE                  4
 *******************************************************************************
 TYPE OF CALCULATION :  RESTRICTED CLOSED SHELL
 KOHN-SHAM HAMILTONIAN

 (EXCHANGE)[CORRELATION] FUNCTIONAL:(BECKE 88)[LEE-YANG-PARR]

 NON-LOCAL WEIGHTING FACTOR (EXCHANGE) =           0.9000
 NON-LOCAL WEIGHTING FACTOR [CORRELATION] =        0.8100

 HYBRID EXCHANGE - PERCENTAGE OF FOCK EXCHANGE    20.0000

 CAPPA:IS1  6;IS2  6;IS3  6; K PTS MONK NET  16; SYMMOPS:K SPACE  48;G SPACE  48

 *******************************************************************************
 MAX NUMBER OF SCF CYCLES     200  CONVERGENCE ON DELTAP        10**-16
 WEIGHT OF F(I) IN F(I+1)      70% CONVERGENCE ON ENERGY        10**- 6
 SHRINK. FACT.(MONKH.)    6  6  6  NUMBER OF K POINTS IN THE IBZ     16
 SHRINKING FACTOR(GILAT NET)   12  NUMBER OF K POINTS(GILAT NET)     72
 *******************************************************************************
 *** K POINTS COORDINATES (OBLIQUE COORDINATES IN UNITS OF IS =  6)
   1-R(  0  0  0)   2-C(  1  0  0)   3-C(  2  0  0)   4-R(  3  0  0)
   5-C(  1  1  0)   6-C(  2  1  0)   7-C(  3  1  0)   8-C(  4  1  0)
   9-C(  5  1  0)  10-C(  2  2  0)  11-C(  3  2  0)  12-C(  4  2  0)
  13-R(  3  3  0)  14-C(  3  1  1)  15-C(  4  1  1)  16-C(  4  2  1)

 DIRECT LATTICE VECTORS COMPON. (A.U.)     RECIP. LATTICE VECTORS COMPON. (A.U.) 
        X            Y            Z              X            Y            Z
    5.6349163    0.0000000    0.0000000      1.1150450    0.0000000   -0.7884559
    0.0000000    5.6349163    0.0000000      0.0000000    1.1150450    0.7884559
    2.8174582   -2.8174582    3.9844876      0.0000000    0.0000000    1.5769118

 DISK SPACE FOR EIGENVECTORS (FTN 10)       19604 REALS

 SYMMETRY ADAPTION OF THE BLOCH FUNCTIONS ENABLED
 TTTTTTTTTTTTTTTTTTTTTTTTTTTTTT gordsh1     TELAPSE        0.01 TCPU        0.01

 MATRIX SIZE: P(G)   41706, F(G)    8178, P(G) IRR    1816, F(G) IRR     974
 MAX G-VECTOR INDEX FOR 1- AND 2-ELECTRON INTEGRALS 289

 TTTTTTTTTTTTTTTTTTTTTTTTTTTTTT INPUT       TELAPSE        0.01 TCPU        0.01

 NEIGHBORS OF THE NON-EQUIVALENT ATOMS

 N = NUMBER OF NEIGHBORS AT DISTANCE R
    ATOM  N     R/ANG      R/AU   NEIGHBORS (ATOM LABELS AND CELL INDICES)
   1 MG   6     2.1085     3.9845    2 O    0 0 0    2 O   -1 0 0    2 O   -1 0 1
                                     2 O    0-1-1    2 O    0-1 0    2 O   -1-1 0
   1 MG  12     2.9819     5.6349    1 MG  -1 0 0    1 MG   1 0 0    1 MG  -1 0 1
                                     1 MG   1 0-1    1 MG  -1 1 1    1 MG   1-1-1
                                     1 MG   0-1-1    1 MG   0 1 1    1 MG   0-1 0
                                     1 MG   0 1 0    1 MG   0 0-1    1 MG   0 0 1
   1 MG   8     3.6520     6.9013    2 O    1-1-1    2 O   -1 1 1    2 O    0 0 1
                                     2 O    0 0-1    2 O   -2 0 1    2 O   -1-1-1
                                     2 O   -1-1 1    2 O    0-2-1
   1 MG   6     4.2170     7.9690    1 MG  -1-1 0    1 MG   1 1 0    1 MG  -1 1 0
                                     1 MG   1-1 0    1 MG  -1 1 2    1 MG   1-1-2
   1 MG  24     4.7147     8.9096    2 O    1 0 0    2 O    1 0-1    2 O    0 1 1
                                     2 O    0 1 0    2 O    1-1 0    2 O   -1 1 0
                                     2 O    1-1-2    2 O   -1 1 2    2 O   -2 1 1
                                     2 O   -2 1 2    2 O   -1 0-1    2 O   -1 0 2
                                     2 O    1-2-1    2 O    1-2-2    2 O    0-1-2
                                     2 O    0-1 1    2 O   -2 0 0    2 O   -2 0 2
                                     2 O    0-2-2    2 O    0-2 0    2 O   -2-1 0
                                     2 O   -2-1 1    2 O   -1-2-1    2 O   -1-2 0
   1 MG  24     5.1647     9.7600    1 MG  -2 0 1    1 MG   2 0-1    1 MG  -2 1 1
                                     1 MG   2-1-1    1 MG  -2 1 2    1 MG   2-1-2
                                     1 MG  -1-1-1    1 MG   1 1 1    1 MG  -1-1 1
                                     1 MG   1 1-1    1 MG  -1 0-1    1 MG   1 0 1
                                     1 MG  -1 0 2    1 MG   1 0-2    1 MG  -1 2 1
                                     1 MG   1-2-1    1 MG  -1 2 2    1 MG   1-2-2
                                     1 MG   0-2-1    1 MG   0 2 1    1 MG   0-1-2
                                     1 MG   0 1 2    1 MG   0-1 1    1 MG   0 1-1

   2 O    6     2.1085     3.9845    1 MG   0 0 0    1 MG   1 0 0    1 MG   1 0-1
                                     1 MG   0 1 1    1 MG   0 1 0    1 MG   1 1 0
   2 O   12     2.9819     5.6349    2 O   -1 0 0    2 O    1 0 0    2 O   -1 0 1
                                     2 O    1 0-1    2 O   -1 1 1    2 O    1-1-1
                                     2 O    0-1-1    2 O    0 1 1    2 O    0-1 0
                                     2 O    0 1 0    2 O    0 0-1    2 O    0 0 1
   2 O    8     3.6520     6.9013    1 MG  -1 1 1    1 MG   1-1-1    1 MG   0 0-1
                                     1 MG   0 0 1    1 MG   2 0-1    1 MG   1 1 1
                                     1 MG   1 1-1    1 MG   0 2 1
   2 O    6     4.2170     7.9690    2 O   -1-1 0    2 O    1 1 0    2 O   -1 1 0
                                     2 O    1-1 0    2 O   -1 1 2    2 O    1-1-2
   2 O   24     4.7147     8.9096    1 MG  -1 0 0    1 MG  -1 0 1    1 MG   0-1-1
                                     1 MG   0-1 0    1 MG  -1 1 0    1 MG   1-1 0
                                     1 MG  -1 1 2    1 MG   1-1-2    1 MG   2-1-1
                                     1 MG   2-1-2    1 MG   1 0 1    1 MG   1 0-2
                                     1 MG  -1 2 1    1 MG  -1 2 2    1 MG   0 1 2
                                     1 MG   0 1-1    1 MG   2 0 0    1 MG   2 0-2
                                     1 MG   0 2 2    1 MG   0 2 0    1 MG   2 1 0
                                     1 MG   2 1-1    1 MG   1 2 1    1 MG   1 2 0
   2 O   24     5.1647     9.7600    2 O   -2 0 1    2 O    2 0-1    2 O   -2 1 1
                                     2 O    2-1-1    2 O   -2 1 2    2 O    2-1-2
                                     2 O   -1-1-1    2 O    1 1 1    2 O   -1-1 1
                                     2 O    1 1-1    2 O   -1 0-1    2 O    1 0 1
                                     2 O   -1 0 2    2 O    1 0-2    2 O   -1 2 1
                                     2 O    1-2-1    2 O   -1 2 2    2 O    1-2-2
                                     2 O    0-2-1    2 O    0 2 1    2 O    0-1-2
                                     2 O    0 1 2    2 O    0-1 1    2 O    0 1-1


 THERE ARE NO SYMMETRY ALLOWED DIRECTIONS
 TTTTTTTTTTTTTTTTTTTTTTTTTTTTTT SYMM        TELAPSE        0.01 TCPU        0.01
 TTTTTTTTTTTTTTTTTTTTTTTTTTTTTT INT_SCREEN  TELAPSE        0.01 TCPU        0.01
 INFORMATION **** EXCBUF **** EXCH. BIPO BUFFER: WORDS USED =      236394

 DFT PARAMETERS

     ATOM       ELECTRONS   NET CHARGE   R(ANGSTROM)
   1  12  MG     12.0000      0.0000     1.60000000
   2   8  O       8.0000      0.0000     0.74000000

 SIZE OF GRID=       5756
 TTTTTTTTTTTTTTTTTTTTTTTTTTTTTT MAKE_GRID2  TELAPSE        0.82 TCPU        0.82
 BECKE WEIGHT FUNCTION
 RADSAFE =     2.00
 TOLERANCES - DENSITY:10**- 6; POTENTIAL:10**- 9; GRID WGT:10**-14

 RADIAL INTEGRATION  - INTERVALS (POINTS,UPPER LIMIT):            1( 99,  4.0*R)

 ANGULAR INTEGRATION - INTERVALS (ACCURACY LEVEL [N. POINTS] UPPER LIMIT):
  1(  6[ 146]   0.2)  2( 11[ 302]   0.5)  3( 14[ 590]   0.9)  4( 18[1454]   3.5)
  5( 14[ 590]9999.0)
 TTTTTTTTTTTTTTTTTTTTTTTTTTTTTT INT_CALC    TELAPSE        0.83 TCPU        0.83
 EEEEEEEEEE INT_CALC TERMINATION  DATE 10 08 2021 TIME 10:14:10.8

 *******************************************************************************
 MGO BULK - GEOMETRY TEST                                                        
 CRYSTAL - SCF - TYPE OF CALCULATION :  RESTRICTED CLOSED SHELL
 *******************************************************************************

 CAPPA:IS1  6;IS2  6;IS3  6; K PTS MONK NET  16; SYMMOPS:K SPACE  48;G SPACE  48

 TTTTTTTTTTTTTTTTTTTTTTTTTTTTTT SDIK        TELAPSE        0.83 TCPU        0.83

 AAAAAAAAAAAAAAAAAAAAAAAAAAAAAAAAAAAAAAAAAAAAAAAAAAAAAAAAAAAAAAAAAAAAAAAAAAAAAAA
         ATOMIC WAVEFUNCTION(S)


 NUCLEAR CHARGE 12.0  SYMMETRY SPECIES            S    P
 N. ELECTRONS   12.0  NUMBER OF PRIMITIVE GTOS   15    7
                      NUMBER OF CONTRACTED GTOS   4    3
                      NUMBER OF CLOSED SHELLS     3    1
                      OPEN SHELL OCCUPATION       0    0

  ZNUC SCFIT  TOTAL HF ENERGY   KINETIC ENERGY   VIRIAL THEOREM ACCURACY
  12.0  10   -1.991550455E+02  2.010842411E+02 -1.990406033E+00  2.1E-06

 NUCLEAR CHARGE  8.0  SYMMETRY SPECIES            S    P
 N. ELECTRONS    8.0  NUMBER OF PRIMITIVE GTOS   14    6
                      NUMBER OF CONTRACTED GTOS   4    3
                      NUMBER OF CLOSED SHELLS     2    0
                      OPEN SHELL OCCUPATION       0    4

  ZNUC SCFIT  TOTAL HF ENERGY   KINETIC ENERGY   VIRIAL THEOREM ACCURACY
   8.0  13   -7.480074697E+01  7.460838938E+01 -2.002578230E+00  3.3E-06

 AAAAAAAAAAAAAAAAAAAAAAAAAAAAAAAAAAAAAAAAAAAAAAAAAAAAAAAAAAAAAAAAAAAAAAAAAAAAAAA

 CHARGE NORMALIZATION FACTOR   1.00000000
 TOTAL ATOMIC CHARGES:
  12.0000000   8.0000000
 TTTTTTTTTTTTTTTTTTTTTTTTTTTTTT MOQGAD      TELAPSE        0.84 TCPU        0.84
 TTTTTTTTTTTTTTTTTTTTTTTTTTTTTT SHELLXN     TELAPSE        1.65 TCPU        1.64
 TTTTTTTTTTTTTTTTTTTTTTTTTTTTTT MONMO3      TELAPSE        1.65 TCPU        1.65
 NUMERICALLY INTEGRATED DENSITY     20.0000086108
 TTTTTTTTTTTTTTTTTTTTTTTTTTTTTT NUMDFT      TELAPSE        1.79 TCPU        1.79
 CYC   0 ETOT(AU) -2.747683364512E+02 DETOT -2.75E+02 tst  0.00E+00 PX  1.00E+00
 TTTTTTTTTTTTTTTTTTTTTTTTTTTTTT DIIS        TELAPSE        1.79 TCPU        1.79
 TTTTTTTTTTTTTTTTTTTTTTTTTTTTTT FDIK        TELAPSE        1.80 TCPU        1.79
 INSULATING STATE
 TOP OF VALENCE BANDS -    BAND     10; K    1; EIG -3.0313891E-01 AU
 BOTTOM OF VIRTUAL BANDS - BAND     11; K    1; EIG  6.9494136E-03 AU
 DIRECT ENERGY BAND GAP:   8.4379 eV
 TTTTTTTTTTTTTTTTTTTTTTTTTTTTTT PDIG        TELAPSE        1.82 TCPU        1.81
 CHARGE NORMALIZATION FACTOR   1.00000000
 TOTAL ATOMIC CHARGES:
  10.1565600   9.8434400
 TTTTTTTTTTTTTTTTTTTTTTTTTTTTTT MOQGAD      TELAPSE        1.82 TCPU        1.82
 TTTTTTTTTTTTTTTTTTTTTTTTTTTTTT SHELLXN     TELAPSE        2.63 TCPU        2.63
 TTTTTTTTTTTTTTTTTTTTTTTTTTTTTT MONMO3      TELAPSE        2.64 TCPU        2.63
 NUMERICALLY INTEGRATED DENSITY     20.0000110862
 TTTTTTTTTTTTTTTTTTTTTTTTTTTTTT NUMDFT      TELAPSE        2.96 TCPU        2.96
 CYC   1 ETOT(AU) -2.752516737184E+02 DETOT -4.83E-01 tst  0.00E+00 PX  1.00E+00
 TTTTTTTTTTTTTTTTTTTTTTTTTTTTTT DIIS        TELAPSE        2.97 TCPU        2.96
 DIIS TEST: 0.15127E+01 AT SCF   CYCLE   1 - MIX   70 %
 TTTTTTTTTTTTTTTTTTTTTTTTTTTTTT FDIK        TELAPSE        2.97 TCPU        2.96
 INSULATING STATE
 TOP OF VALENCE BANDS -    BAND     10; K    1; EIG -1.6881567E-01 AU
 BOTTOM OF VIRTUAL BANDS - BAND     11; K    1; EIG  7.4210436E-02 AU
 DIRECT ENERGY BAND GAP:   6.6131 eV
 TTTTTTTTTTTTTTTTTTTTTTTTTTTTTT PDIG        TELAPSE        2.99 TCPU        2.98
 CHARGE NORMALIZATION FACTOR   1.00000000
 TOTAL ATOMIC CHARGES:
  10.1784679   9.8215321
 TTTTTTTTTTTTTTTTTTTTTTTTTTTTTT MOQGAD      TELAPSE        2.99 TCPU        2.99
 TTTTTTTTTTTTTTTTTTTTTTTTTTTTTT SHELLXN     TELAPSE        3.81 TCPU        3.81
 TTTTTTTTTTTTTTTTTTTTTTTTTTTTTT MONMO3      TELAPSE        3.82 TCPU        3.81
 NUMERICALLY INTEGRATED DENSITY     20.0000137599
 TTTTTTTTTTTTTTTTTTTTTTTTTTTTTT NUMDFT      TELAPSE        4.15 TCPU        4.14
 CYC   2 ETOT(AU) -2.754332041640E+02 DETOT -1.82E-01 tst  7.97E-03 PX  1.43E-01
 TTTTTTTTTTTTTTTTTTTTTTTTTTTTTT DIIS        TELAPSE        4.15 TCPU        4.15
 DIIS TEST: 0.10699E+00 AT SCF   CYCLE   2 - DIIS ACTIVE - HISTORY:     2 CYCLES
 TTTTTTTTTTTTTTTTTTTTTTTTTTTTTT FDIK        TELAPSE        4.15 TCPU        4.15
 INSULATING STATE
 TOP OF VALENCE BANDS -    BAND     10; K    1; EIG -1.5078184E-01 AU
 BOTTOM OF VIRTUAL BANDS - BAND     11; K    1; EIG  1.0849625E-01 AU
 DIRECT ENERGY BAND GAP:   7.0553 eV
 TTTTTTTTTTTTTTTTTTTTTTTTTTTTTT PDIG        TELAPSE        4.17 TCPU        4.17
 CHARGE NORMALIZATION FACTOR   1.00000000
 TOTAL ATOMIC CHARGES:
  10.1304700   9.8695300
 TTTTTTTTTTTTTTTTTTTTTTTTTTTTTT MOQGAD      TELAPSE        4.18 TCPU        4.17
 TTTTTTTTTTTTTTTTTTTTTTTTTTTTTT SHELLXN     TELAPSE        4.99 TCPU        4.99
 TTTTTTTTTTTTTTTTTTTTTTTTTTTTTT MONMO3      TELAPSE        5.00 TCPU        4.99
 NUMERICALLY INTEGRATED DENSITY     20.0000147323
 TTTTTTTTTTTTTTTTTTTTTTTTTTTTTT NUMDFT      TELAPSE        5.32 TCPU        5.32
 CYC   3 ETOT(AU) -2.754485344910E+02 DETOT -1.53E-02 tst  1.58E-03 PX  1.11E-01
 TTTTTTTTTTTTTTTTTTTTTTTTTTTTTT DIIS        TELAPSE        5.33 TCPU        5.32
 DIIS TEST: 0.56738E-03 AT SCF   CYCLE   3 - DIIS ACTIVE - HISTORY:     3 CYCLES
 TTTTTTTTTTTTTTTTTTTTTTTTTTTTTT FDIK        TELAPSE        5.33 TCPU        5.32
 INSULATING STATE
 TOP OF VALENCE BANDS -    BAND     10; K    1; EIG -1.5141838E-01 AU
 BOTTOM OF VIRTUAL BANDS - BAND     11; K    1; EIG  1.0973170E-01 AU
 DIRECT ENERGY BAND GAP:   7.1063 eV
 TTTTTTTTTTTTTTTTTTTTTTTTTTTTTT PDIG        TELAPSE        5.35 TCPU        5.34
 CHARGE NORMALIZATION FACTOR   1.00000000
 TOTAL ATOMIC CHARGES:
  10.1255973   9.8744027
 TTTTTTTTTTTTTTTTTTTTTTTTTTTTTT MOQGAD      TELAPSE        5.35 TCPU        5.35
 TTTTTTTTTTTTTTTTTTTTTTTTTTTTTT SHELLXN     TELAPSE        6.17 TCPU        6.17
 TTTTTTTTTTTTTTTTTTTTTTTTTTTTTT MONMO3      TELAPSE        6.18 TCPU        6.17
 NUMERICALLY INTEGRATED DENSITY     20.0000147578
 TTTTTTTTTTTTTTTTTTTTTTTTTTTTTT NUMDFT      TELAPSE        6.51 TCPU        6.50
 CYC   4 ETOT(AU) -2.754485881839E+02 DETOT -5.37E-05 tst  3.46E-06 PX  5.01E-03
 TTTTTTTTTTTTTTTTTTTTTTTTTTTTTT DIIS        TELAPSE        6.51 TCPU        6.50
 DIIS TEST: 0.45152E-04 AT SCF   CYCLE   4 - DIIS ACTIVE - HISTORY:     4 CYCLES
 TTTTTTTTTTTTTTTTTTTTTTTTTTTTTT FDIK        TELAPSE        6.51 TCPU        6.50
 INSULATING STATE
 TOP OF VALENCE BANDS -    BAND     10; K    1; EIG -1.5216992E-01 AU
 BOTTOM OF VIRTUAL BANDS - BAND     11; K    1; EIG  1.0969041E-01 AU
 DIRECT ENERGY BAND GAP:   7.1256 eV
 TTTTTTTTTTTTTTTTTTTTTTTTTTTTTT PDIG        TELAPSE        6.53 TCPU        6.52
 CHARGE NORMALIZATION FACTOR   1.00000000
 TOTAL ATOMIC CHARGES:
  10.1244771   9.8755229
 TTTTTTTTTTTTTTTTTTTTTTTTTTTTTT MOQGAD      TELAPSE        6.54 TCPU        6.53
 TTTTTTTTTTTTTTTTTTTTTTTTTTTTTT SHELLXN     TELAPSE        7.35 TCPU        7.34
 TTTTTTTTTTTTTTTTTTTTTTTTTTTTTT MONMO3      TELAPSE        7.36 TCPU        7.35
 NUMERICALLY INTEGRATED DENSITY     20.0000147525
 TTTTTTTTTTTTTTTTTTTTTTTTTTTTTT NUMDFT      TELAPSE        7.68 TCPU        7.67
 CYC   5 ETOT(AU) -2.754485927174E+02 DETOT -4.53E-06 tst  3.66E-07 PX  7.51E-04
 TTTTTTTTTTTTTTTTTTTTTTTTTTTTTT DIIS        TELAPSE        7.69 TCPU        7.68
 DIIS TEST: 0.43324E-06 AT SCF   CYCLE   5 - DIIS ACTIVE - HISTORY:     5 CYCLES
 TTTTTTTTTTTTTTTTTTTTTTTTTTTTTT FDIK        TELAPSE        7.69 TCPU        7.68
 INSULATING STATE
 TOP OF VALENCE BANDS -    BAND     10; K    1; EIG -1.5201098E-01 AU
 BOTTOM OF VIRTUAL BANDS - BAND     11; K    1; EIG  1.0987521E-01 AU
 DIRECT ENERGY BAND GAP:   7.1263 eV
 TTTTTTTTTTTTTTTTTTTTTTTTTTTTTT PDIG        TELAPSE        7.71 TCPU        7.70
 CHARGE NORMALIZATION FACTOR   1.00000000
 TOTAL ATOMIC CHARGES:
  10.1242951   9.8757049
 TTTTTTTTTTTTTTTTTTTTTTTTTTTTTT MOQGAD      TELAPSE        7.71 TCPU        7.70
 TTTTTTTTTTTTTTTTTTTTTTTTTTTTTT SHELLXN     TELAPSE        8.54 TCPU        8.53
 TTTTTTTTTTTTTTTTTTTTTTTTTTTTTT MONMO3      TELAPSE        8.54 TCPU        8.53
 NUMERICALLY INTEGRATED DENSITY     20.0000147544
 TTTTTTTTTTTTTTTTTTTTTTTTTTTTTT NUMDFT      TELAPSE        8.87 TCPU        8.86
 CYC   6 ETOT(AU) -2.754485927828E+02 DETOT -6.55E-08 tst  3.88E-09 PX  2.25E-04
 TTTTTTTTTTTTTTTTTTTTTTTTTTTTTT DIIS        TELAPSE        8.88 TCPU        8.86
 DIIS TEST: 0.87209E-09 AT SCF   CYCLE   6 - DIIS ACTIVE - HISTORY:     6 CYCLES
 TTTTTTTTTTTTTTTTTTTTTTTTTTTTTT FDIK        TELAPSE        8.88 TCPU        8.86
 INSULATING STATE
 TOP OF VALENCE BANDS -    BAND     10; K    1; EIG -1.5200869E-01 AU
 BOTTOM OF VIRTUAL BANDS - BAND     11; K    1; EIG  1.0988295E-01 AU
 DIRECT ENERGY BAND GAP:   7.1264 eV
 TTTTTTTTTTTTTTTTTTTTTTTTTTTTTT PDIG        TELAPSE        8.90 TCPU        8.88
 CHARGE NORMALIZATION FACTOR   1.00000000
 TOTAL ATOMIC CHARGES:
  10.1242805   9.8757195
 TTTTTTTTTTTTTTTTTTTTTTTTTTTTTT MOQGAD      TELAPSE        8.90 TCPU        8.89
 TTTTTTTTTTTTTTTTTTTTTTTTTTTTTT SHELLXN     TELAPSE        9.72 TCPU        9.71
 +++ ENERGIES IN A.U. +++
 ::: EXT EL-POLE                                  -4.8333306962278E+02
 ::: EXT EL-SPHEROPOLE                             4.0200863955002E+00
 ::: BIELET ZONE E-E                               5.4552531920903E+02
 ::: TOTAL E-E                                     6.6212335981748E+01
 ::: TOTAL E-N + N-E                              -5.2267101917876E+02
 ::: TOTAL N-N                                    -7.2962960590270E+01
 ::: KINETIC ENERGY                                2.7433992817806E+02
 ::: PSEUDO TOTAL   ENERGY                        -2.5508171560922E+02
 ::: VIRIAL COEFFICIENT                            1.0363759449483E+00
 TTTTTTTTTTTTTTTTTTTTTTTTTTTTTT MONMO3      TELAPSE        9.73 TCPU        9.71
 NUMERICALLY INTEGRATED DENSITY     20.0000147545
 TTTTTTTTTTTTTTTTTTTTTTTTTTTTTT NUMDFT      TELAPSE       10.05 TCPU       10.04
 CYC   7 ETOT(AU) -2.754485927861E+02 DETOT -3.28E-09 tst  2.80E-11 PX  2.25E-04

 == SCF ENDED - CONVERGENCE ON ENERGY      E(AU) -2.7544859278612E+02 CYCLES   7


 ENERGY EXPRESSION=HARTREE+FOCK EXCH*0.20000+(BECKE      EXCH)*0.80000+LYP        CORR


 TOTAL ENERGY(DFT)(AU)(  7) -2.7544859278612E+02 DE-3.3E-09 tester 2.8E-11
 TTTTTTTTTTTTTTTTTTTTTTTTTTTTTT EDFT        TELAPSE       10.05 TCPU       10.04
 EIGENVECTORS IN FORTRAN UNIT 10
 TTTTTTTTTTTTTTTTTTTTTTTTTTTTTT END         TELAPSE       10.06 TCPU       10.05
 EEEEEEEEEE TERMINATION  DATE 10 08 2021 TIME 10:14:20.0
Tue 10 Aug 2021 10:14:20 BST
Contents of temporary directory:
total 5592
-rw-r--r--  1 brunocamino  admin   71256 10 Aug 10:14 BAND.DAT
-rw-r--r--  1 brunocamino  admin   14959 10 Aug 10:12 DOSS.DAT
-rw-r--r--  1 brunocamino  admin       0 10 Aug 10:14 OPTalist
-rw-r--r--  1 brunocamino  admin       0 10 Aug 10:14 OPTclist
-rw-r--r--  1 brunocamino  admin   54600 10 Aug 10:14 diis_Fg
-rw-r--r--  1 brunocamino  admin    4896 10 Aug 10:14 diis_Fia1
-rw-r--r--  1 brunocamino  admin    4080 10 Aug 10:14 diis_Fia2
-rw-r--r--  1 brunocamino  admin       0 10 Aug 10:03 diis_Sk
-rw-r--r--  1 brunocamino  admin   71120 10 Aug 10:14 fort.10
-rw-r--r--  1 brunocamino  admin    7800 10 Aug 10:14 fort.11
-rw-r--r--  1 brunocamino  admin  983736 10 Aug 10:14 fort.13
-rw-r--r--  1 brunocamino  admin  699611 10 Aug 10:14 fort.25
-rw-r--r--  1 brunocamino  admin   63896 10 Aug 10:14 fort.3
-rw-r--r--  1 brunocamino  admin   11997 10 Aug 10:14 fort.34
-rw-r--r--  1 brunocamino  admin   23080 10 Aug 10:14 fort.61
-rw-r--r--  1 brunocamino  admin   16800 10 Aug 10:14 fort.62
-rw-r--r--  1 brunocamino  admin   71120 10 Aug 10:14 fort.8
-rw-r--r--  1 brunocamino  admin  127172 10 Aug 10:14 fort.9
-rw-r--r--  1 brunocamino  admin   16552 10 Aug 10:14 fort.95
-rw-r--r--  1 brunocamino  admin  323770 10 Aug 10:14 fort.98
-rw-r--r--  1 brunocamino  admin       0 10 Aug 10:14 scanlist
wave function binary file /Users/brunocamino/Desktop/Imperial/crystal_python_tools/final/examples/workflows/../data/spbs/mgo.f9
file fort.98 saved as /Users/brunocamino/Desktop/Imperial/crystal_python_tools/final/examples/workflows/../data/spbs/mgo.f98
file fort.13 saved as /Users/brunocamino/Desktop/Imperial/crystal_python_tools/final/examples/workflows/../data/spbs/mgo.f13
geometry input file fort.34 saved as /Users/brunocamino/Desktop/Imperial/crystal_python_tools/final/examples/workflows/../data/spbs/mgo.gui
file fort.25 saved as /Users/brunocamino/Desktop/Imperial/crystal_python_tools/final/examples/workflows/../data/spbs/mgo.f25
file BAND.DAT saved as /Users/brunocamino/Desktop/Imperial/crystal_python_tools/final/examples/workflows/../data/spbs/mgo_dat.BAND
file DOSS.DAT saved as /Users/brunocamino/Desktop/Imperial/crystal_python_tools/final/examples/workflows/../data/spbs/mgo_dat.DOSS
output of Crgra in file /Users/brunocamino/Desktop/Imperial/crystal_python_tools/final/examples/workflows/../data/spbs/mgo.outg
